# vtk DataFile Version 3.0
vtk output
ASCII
DATASET POLYDATA

POINTS 164 float
-1.385 0.423 -0.500
-1.349 0.414 -0.500
-1.314 0.405 -0.500
-1.278 0.396 -0.500
-1.242 0.387 -0.500
-1.207 0.378 -0.500
-1.171 0.369 -0.500
-1.135 0.360 -0.500
-1.100 0.351 -0.500
-1.064 0.342 -0.500
-1.028 0.333 -0.500
-0.993 0.324 -0.500
-0.957 0.315 -0.500
-0.921 0.306 -0.500
-0.886 0.298 -0.500
-0.850 0.289 -0.500
-0.814 0.280 -0.500
-0.779 0.271 -0.500
-0.743 0.262 -0.499
-0.708 0.253 -0.495
-0.672 0.244 -0.490
-0.637 0.235 -0.482
-0.603 0.226 -0.473
-0.569 0.218 -0.462
-0.536 0.209 -0.448
-0.503 0.201 -0.434
-0.471 0.193 -0.418
-0.440 0.185 -0.400
-0.409 0.178 -0.381
-0.379 0.170 -0.360
-0.350 0.163 -0.339
-0.322 0.156 -0.316
-0.294 0.149 -0.293
-0.268 0.142 -0.268
-0.242 0.136 -0.243
-0.216 0.129 -0.217
-0.192 0.123 -0.190
-0.168 0.117 -0.162
-0.145 0.111 -0.134
-0.122 0.106 -0.105
-0.100 0.100 -0.076
-1.385 -0.423 -0.500
-1.349 -0.414 -0.500
-1.314 -0.405 -0.500
-1.278 -0.396 -0.500
-1.242 -0.387 -0.500
-1.207 -0.378 -0.500
-1.171 -0.369 -0.500
-1.135 -0.360 -0.500
-1.100 -0.351 -0.500
-1.064 -0.342 -0.500
-1.028 -0.333 -0.500
-0.993 -0.324 -0.500
-0.957 -0.315 -0.500
-0.921 -0.306 -0.500
-0.886 -0.298 -0.500
-0.850 -0.289 -0.500
-0.814 -0.280 -0.500
-0.779 -0.271 -0.500
-0.743 -0.262 -0.499
-0.708 -0.253 -0.495
-0.672 -0.244 -0.490
-0.637 -0.235 -0.482
-0.603 -0.226 -0.473
-0.569 -0.218 -0.462
-0.536 -0.209 -0.448
-0.503 -0.201 -0.434
-0.471 -0.193 -0.418
-0.440 -0.185 -0.400
-0.409 -0.178 -0.381
-0.379 -0.170 -0.360
-0.350 -0.163 -0.339
-0.322 -0.156 -0.316
-0.294 -0.149 -0.293
-0.268 -0.142 -0.268
-0.242 -0.136 -0.243
-0.216 -0.129 -0.217
-0.192 -0.123 -0.190
-0.168 -0.117 -0.162
-0.145 -0.111 -0.134
-0.122 -0.106 -0.105
-0.100 -0.100 -0.076
1.385 0.423 -0.500
1.349 0.414 -0.500
1.314 0.405 -0.500
1.278 0.396 -0.500
1.242 0.387 -0.500
1.207 0.378 -0.500
1.171 0.369 -0.500
1.135 0.360 -0.500
1.100 0.351 -0.500
1.064 0.342 -0.500
1.028 0.333 -0.500
0.993 0.324 -0.500
0.957 0.315 -0.500
0.921 0.306 -0.500
0.886 0.298 -0.500
0.850 0.289 -0.500
0.814 0.280 -0.500
0.779 0.271 -0.500
0.743 0.262 -0.499
0.708 0.253 -0.495
0.672 0.244 -0.490
0.637 0.235 -0.482
0.603 0.226 -0.473
0.569 0.218 -0.462
0.536 0.209 -0.448
0.503 0.201 -0.434
0.471 0.193 -0.418
0.440 0.185 -0.400
0.409 0.178 -0.381
0.379 0.170 -0.360
0.350 0.163 -0.339
0.322 0.156 -0.316
0.294 0.149 -0.293
0.268 0.142 -0.268
0.242 0.136 -0.243
0.216 0.129 -0.217
0.192 0.123 -0.190
0.168 0.117 -0.162
0.145 0.111 -0.134
0.122 0.106 -0.105
0.100 0.100 -0.076
1.385 -0.423 -0.500
1.349 -0.414 -0.500
1.314 -0.405 -0.500
1.278 -0.396 -0.500
1.242 -0.387 -0.500
1.207 -0.378 -0.500
1.171 -0.369 -0.500
1.135 -0.360 -0.500
1.100 -0.351 -0.500
1.064 -0.342 -0.500
1.028 -0.333 -0.500
0.993 -0.324 -0.500
0.957 -0.315 -0.500
0.921 -0.306 -0.500
0.886 -0.298 -0.500
0.850 -0.289 -0.500
0.814 -0.280 -0.500
0.779 -0.271 -0.500
0.743 -0.262 -0.499
0.708 -0.253 -0.495
0.672 -0.244 -0.490
0.637 -0.235 -0.482
0.603 -0.226 -0.473
0.569 -0.218 -0.462
0.536 -0.209 -0.448
0.503 -0.201 -0.434
0.471 -0.193 -0.418
0.440 -0.185 -0.400
0.409 -0.178 -0.381
0.379 -0.170 -0.360
0.350 -0.163 -0.339
0.322 -0.156 -0.316
0.294 -0.149 -0.293
0.268 -0.142 -0.268
0.242 -0.136 -0.243
0.216 -0.129 -0.217
0.192 -0.123 -0.190
0.168 -0.117 -0.162
0.145 -0.111 -0.134
0.122 -0.106 -0.105
0.100 -0.100 -0.076

LINES 4 168
41 0 1 2 3 4 5 6 7 8 9 10 11 12 13 14 15 16 17 18 19 20 21 22 23 24 25 26 27 28 29 30 31 32 33 34 35 36 37 38 39 40
41 41 42 43 44 45 46 47 48 49 50 51 52 53 54 55 56 57 58 59 60 61 62 63 64 65 66 67 68 69 70 71 72 73 74 75 76 77 78 79 80 81
41 82 83 84 85 86 87 88 89 90 91 92 93 94 95 96 97 98 99 100 101 102 103 104 105 106 107 108 109 110 111 112 113 114 115 116 117 118 119 120 121 122
41 123 124 125 126 127 128 129 130 131 132 133 134 135 136 137 138 139 140 141 142 143 144 145 146 147 148 149 150 151 152 153 154 155 156 157 158 159 160 161 162 163

POINT_DATA 164
SCALARS Tension float 1
LOOKUP_TABLE default
0.315 0.315 0.315 0.315 0.315 0.315 0.315 0.315 0.315 0.315
0.315 0.315 0.315 0.315 0.315 0.315 0.315 0.315 0.316 0.317
0.319 0.322 0.326 0.331 0.337 0.344 0.351 0.360 0.369 0.378
0.388 0.399 0.410 0.422 0.434 0.447 0.460 0.473 0.486 0.500
0.514
0.315 0.315 0.315 0.315 0.315 0.315 0.315 0.315 0.315 0.315
0.315 0.315 0.315 0.315 0.315 0.315 0.315 0.315 0.316 0.317
0.319 0.322 0.326 0.331 0.337 0.344 0.351 0.360 0.369 0.378
0.388 0.399 0.410 0.422 0.434 0.447 0.460 0.473 0.486 0.500
0.514
0.315 0.315 0.315 0.315 0.315 0.315 0.315 0.315 0.315 0.315
0.315 0.315 0.315 0.315 0.315 0.315 0.315 0.315 0.316 0.317
0.319 0.322 0.326 0.331 0.337 0.344 0.351 0.360 0.369 0.378
0.388 0.399 0.410 0.422 0.434 0.447 0.460 0.473 0.486 0.500
0.514
0.315 0.315 0.315 0.315 0.315 0.315 0.315 0.315 0.315 0.315
0.315 0.315 0.315 0.315 0.315 0.315 0.315 0.315 0.316 0.317
0.319 0.322 0.326 0.331 0.337 0.344 0.351 0.360 0.369 0.378
0.388 0.399 0.410 0.422 0.434 0.447 0.460 0.473 0.486 0.500
0.514
